 Gaussian 09, Revision C.01,
 Gaussian 09:  IA32W-G09RevC.01 23-Sep-2011

 ----------------------------------------------------------------------
 # opt=tight hf/6-31g(d) nosymm scf=qc pop=mk iop(6/33=2,6/42=6,6/50=1)
 ----------------------------------------------------------------------

 99/9=1/99;
 -------------
 Molecule Name
 -------------
 Charge =  0 Multiplicity = 1

 SCF Done:  E(RHF) =  -1497.04883419     a.u. after    9 cycles
 SCF Done:  E(RHF) =  -1497.13891603     a.u. after    7 cycles
 SCF Done:  E(RHF) =  -1497.15891643     a.u. after    8 cycles
 SCF Done:  E(RHF) =  -1497.24253378     a.u. after    8 cycles
 SCF Done:  E(RHF) =  -1497.28592391     a.u. after    9 cycles
 SCF Done:  E(RHF) =  -1497.30447188     a.u. after    7 cycles
 SCF Done:  E(RHF) =  -1497.30516588     a.u. after    7 cycles
 SCF Done:  E(RHF) =  -1497.30788205     a.u. after    7 cycles
 SCF Done:  E(RHF) =  -1497.31000719     a.u. after    7 cycles
 SCF Done:  E(RHF) =  -1497.29955532     a.u. after    8 cycles
 SCF Done:  E(RHF) =  -1497.31622617     a.u. after    3 cycles
 SCF Done:  E(RHF) =  -1497.31622622     a.u. after    2 cycles
 SCF Done:  E(RHF) =  -1497.31622628     a.u. after    3 cycles
 SCF Done:  E(RHF) =  -1497.31622636     a.u. after    3 cycles
 SCF Done:  E(RHF) =  -1497.31622644     a.u. after    5 cycles
 SCF Done:  E(RHF) =  -1497.31622650     a.u. after    3 cycles
 SCF Done:  E(RHF) =  -1497.31622650     a.u. after    2 cycles
 SCF Done:  E(RHF) =  -1497.31622650     a.u. after    2 cycles
 SCF Done:  E(RHF) =  -1497.31622650     a.u. after    2 cycles
 SCF Done:  E(RHF) =  -1497.31622650     a.u. after    2 cycles
 Optimization completed on the basis of negligible forces.
    -- Stationary point found.

                          Input orientation:
 ---------------------------------------------------------------------
 Center     Atomic      Atomic             Coordinates (Angstroms)
 Number     Number       Type             X           Y           Z
 ---------------------------------------------------------------------
      1          6           0       -0.064499    4.048305   -3.852113
      2          6           0        0.836051    5.082641   -3.685759
      3          6           0        0.516734    6.142304   -2.852095
      4          6           0       -0.702639    6.148919   -2.190721
      5          6           0       -1.600879    5.107318   -2.362336
      6          6           0       -1.279990    4.052324   -3.193445
      7          1           0        1.774843    5.047821   -4.198272
      8          6           0        1.443425    7.307841   -2.521544
      9          1           0       -2.546986    5.122338   -1.851982
     10          1           0       -1.970785    3.242733   -3.331471
     11          6           0       -0.385936    8.434982   -1.431206
     12          1           0       -1.837647    7.214035   -0.818953
     13         17           0        0.343271    2.719319   -4.901368
     14          7           0       -0.991463    7.216206   -1.343461
     15          8           0        0.684323    8.468478   -2.231544
     16          8           0       -0.777205    9.403667   -0.878377
     17          6           0        2.297040    7.774230   -3.714985
     18          6           0        2.318509    6.968840   -1.385135
     19          6           0        3.010107    6.688558   -0.461406
     20          6           0        3.859899    6.353744    0.662158
     21          6           0        3.339065    5.449194    1.749127
     22          6           0        4.379913    4.946965    0.810715
     23          1           0        4.517151    7.148402    0.966561
     24          1           0        2.336893    5.076322    1.643429
     25          1           0        3.625127    5.685569    2.758083
     26          1           0        5.387083    4.835512    1.169725
     27          1           0        4.088817    4.231177    0.064095
     28          9           0        1.541402    8.028526   -4.761267
     29          9           0        3.170838    6.844361   -4.061474
     30          9           0        2.967542    8.859567   -3.414676
 ---------------------------------------------------------------------

 Alpha  occ. eigenvalues -- -104.83811 -26.35600 -26.35118 -26.34800 -20.63506
 Alpha  occ. eigenvalues --  -20.54959 -15.62911 -11.52001 -11.42711 -11.38051
 Alpha  occ. eigenvalues --  -11.32306 -11.31570 -11.28353 -11.27648 -11.27542
 Alpha  occ. eigenvalues --  -11.26976 -11.26894 -11.25765 -11.24907 -11.24836
 Alpha  occ. eigenvalues --  -11.24070 -10.57136  -8.04078  -8.03742  -8.03735
 Alpha  occ. eigenvalues --   -1.75389  -1.65063  -1.64774  -1.50724  -1.39779
 Alpha  occ. eigenvalues --   -1.29643  -1.21161  -1.17839  -1.15104  -1.11263
 Alpha  occ. eigenvalues --   -1.05760  -1.03199  -1.01511  -0.94902  -0.91205
 Alpha  occ. eigenvalues --   -0.88248  -0.87440  -0.84646  -0.84462  -0.83841
 Alpha  occ. eigenvalues --   -0.82444  -0.79916  -0.78827  -0.76242  -0.73016
 Alpha  occ. eigenvalues --   -0.71681  -0.71402  -0.70082  -0.67438  -0.67146
 Alpha  occ. eigenvalues --   -0.67017  -0.66856  -0.66544  -0.66027  -0.65158
 Alpha  occ. eigenvalues --   -0.63462  -0.63290  -0.60243  -0.59116  -0.57634
 Alpha  occ. eigenvalues --   -0.57073  -0.54696  -0.53957  -0.53723  -0.52184
 Alpha  occ. eigenvalues --   -0.49431  -0.48688  -0.47314  -0.46951  -0.46543
 Alpha  occ. eigenvalues --   -0.44894  -0.40352  -0.37988  -0.37180  -0.32897
 Alpha virt. eigenvalues --    0.09656   0.11139   0.17424   0.18172   0.19384
 Alpha virt. eigenvalues --    0.21778   0.22844   0.24785   0.25612   0.26548
 Alpha virt. eigenvalues --    0.29048   0.30418   0.30743   0.30953   0.31186

 Mulliken atomic charges:
              1
     1  C   -0.162538
     2  C   -0.165796
     3  C   -0.083141
     4  C    0.390911
     5  C   -0.236118
     6  C   -0.164372
     7  H    0.272691
     8  C    0.189902
     9  H    0.225778
    10  H    0.243171
    11  C    1.033903
    12  H    0.415159
    13  Cl   0.011978
    14  N   -0.918791
    15  O   -0.658412
    16  O   -0.562868
    17  C    1.174126
    18  C   -0.013058
    19  C   -0.041584
    20  C   -0.233980
    21  C   -0.349650
    22  C   -0.350198
    23  H    0.232694
    24  H    0.203276
    25  H    0.198819
    26  H    0.198641
    27  H    0.205503
    28  F   -0.353182
    29  F   -0.361291
    30  F   -0.341570
 Sum of Mulliken atomic charges =   0.00000

 Dipole moment (field-independent basis, Debye):
    X=             -0.6048    Y=             -4.4699    Z=              2.6462  Tot=              5.2296
 Quadrupole moment (field-independent basis, Debye-Ang):
   XX=           -109.7091   YY=           -201.0022   ZZ=           -133.5613
   XY=             -2.2272   XZ=             10.4498   YZ=             19.2945

 Normal termination of Gaussian 09 at Tue Dec 01 19:49:56 2015.
